
#######################################################################
#
#                 Cambridge Crystallographic Data Centre
#                                CCDC
#
#######################################################################
#
# If this CIF has been generated from an entry in the Cambridge
# Structural Database, then it will include bibliographic, chemical,
# crystal, experimental, refinement or atomic coordinate data resulting
# from the CCDC's data processing and validation procedures.
#
#######################################################################

data_CSD_CIF_ELEHOU
_audit_creation_date 2016-04-25
_audit_creation_method CSD-ConQuest-V1
_database_code_CSD ELEHOU
_database_code_depnum_ccdc_archive 'CCDC 1051960'
_chemical_formula_sum 'C4 Cu1 K2 O8'
_chemical_formula_moiety
;
(C4 Cu1 O8 2-)n,2n(K1 1+)
;
_journal_coden_Cambridge 700
_journal_volume 70
_journal_year 2016
_journal_page_first 82
_journal_name_full 'Chem.Papers '
loop_
_publ_author_name
"K.Matelkova"
"L.Kuckova"
"A.Maslejova"
"Jan Moncol"
"V.Jorik"
"J.Kozisek"
_chemical_name_systematic
;
catena-[Di-potassium bis(\m~2~-oxalato)-copper(ii)]
;
_cell_volume    424.340
_exptl_crystal_colour 'blue'
_exptl_crystal_density_diffrn 2.487
_exptl_crystal_description 'prism'
_diffrn_ambient_temperature 150
#These two values have been output from a single CSD field.
_refine_ls_R_factor_gt 0.0183
_refine_ls_wR_factor_gt 0.0183
_symmetry_cell_setting monoclinic
_symmetry_space_group_name_H-M 'P 21/c'
_symmetry_Int_Tables_number 14
loop_
_symmetry_equiv_pos_site_id
_symmetry_equiv_pos_as_xyz
1 x,y,z
2 -x,1/2+y,1/2-z
3 -x,-y,-z
4 x,-1/2-y,-1/2+z
_cell_length_a 4.8800(2)
_cell_length_b 6.6520(3)
_cell_length_c 13.5020(4)
_cell_angle_alpha 90
_cell_angle_beta 104.499(3)
_cell_angle_gamma 90
_cell_formula_units_Z 2
loop_
_atom_type_symbol
_atom_type_radius_bond
C 0.68
Cu 1.32
K 2.03
O 0.68
loop_
_atom_site_label
_atom_site_type_symbol
_atom_site_fract_x
_atom_site_fract_y
_atom_site_fract_z
Cu1 Cu 1.00000 0.50000 0.50000
O1 O 0.8135(3) 0.2566(2) 0.43938(10)
O2 O 0.6594(3) 0.6375(2) 0.42941(10)
O3 O 0.2205(3) 0.5591(2) 0.34203(10)
O4 O 0.4138(3) 0.1693(2) 0.32553(11)
C1 C 0.4691(4) 0.5147(3) 0.38183(14)
C2 C 0.5666(4) 0.2928(3) 0.38020(14)
K1 K 0.97947(9) -0.07778(7) 0.34875(3)
O1B O 0.1865(3) 0.7434(2) 0.56062(10)
O2B O 0.3406(3) 0.3625(2) 0.57059(10)
O3B O 0.7795(3) 0.4409(2) 0.65797(10)
O4B O 0.5862(3) 0.8307(2) 0.67447(11)
C1B C 0.5309(4) 0.4853(3) 0.61817(14)
C2B C 0.4334(4) 0.7072(3) 0.61980(14)
Cu1* Cu 0.00000 0.50000 0.50000
O1B* O 1.1865(3) 0.7434(2) 0.56062(10)
O2B* O 1.3406(3) 0.3625(2) 0.57059(10)
O3* O 1.2205(3) 0.5591(2) 0.34203(10)
#END
