
#######################################################################
#
#                 Cambridge Crystallographic Data Centre
#                                CCDC
#
#######################################################################
#
# If this CIF has been generated from an entry in the Cambridge
# Structural Database, then it will include bibliographic, chemical,
# crystal, experimental, refinement or atomic coordinate data resulting
# from the CCDC's data processing and validation procedures.
#
#######################################################################

data_CSD_CIF_NOTROD
_audit_creation_date 2002-03-14
_audit_creation_method CSD-ConQuest-V1
_database_code_CSD NOTROD
_database_code_depnum_ccdc_archive 'CCDC 176132'
_chemical_formula_sum 'H10 B10 Cs1 Cu1'
_chemical_formula_moiety
;
(H10 B10 Cu1 1-)n,n(Cs1 1+)
;
_journal_coden_Cambridge 93
_journal_volume 378
_journal_year 2001
_journal_page_first 351
_journal_name_full 'Dokl.Akad.Nauk SSSR(Russ.)(Proc.Nat.Acad.Sci.USSR) '
loop_
_publ_author_name
"E.A.Malinina"
"K.Yu.Zhizhin"
"L.V.Goeva"
"I.N.Polyakova"
"N.T.Kuznetsov"
_chemical_name_systematic
;
catena-(Cesium (\m~2~-closo-decaborate(10))-copper(i))
;
_chemical_name_common
;
catena-(Cesium (mu!2$-closo-decaborate)-copper(i))
;
_cell_volume   1887.845
_exptl_crystal_colour 'colorless'
_exptl_crystal_density_diffrn 2.214
_exptl_crystal_description 'prism'
_diffrn_ambient_temperature 295
#These two values have been output from a single CSD field.
_refine_ls_R_factor_gt 0.0398
_refine_ls_wR_factor_gt 0.0398
_symmetry_cell_setting orthorhombic
_symmetry_space_group_name_H-M 'P b c n'
_symmetry_Int_Tables_number 60
loop_
_symmetry_equiv_pos_site_id
_symmetry_equiv_pos_as_xyz
1 x,y,z
2 1/2-x,1/2-y,1/2+z
3 -x,y,1/2-z
4 1/2+x,1/2-y,-z
5 -x,-y,-z
6 -1/2+x,-1/2+y,-1/2-z
7 x,-y,-1/2+z
8 -1/2-x,-1/2+y,z
_cell_length_a 21.212(4)
_cell_length_b 9.216(3)
_cell_length_c 9.657(3)
_cell_angle_alpha 90
_cell_angle_beta 90
_cell_angle_gamma 90
_cell_formula_units_Z 8
loop_
_atom_type_symbol
_atom_type_radius_bond
H 0.23
B 0.83
Cs 1.67
Cu 1.52
loop_
_atom_site_label
_atom_site_type_symbol
_atom_site_fract_x
_atom_site_fract_y
_atom_site_fract_z
B1 B 0.3068(3) 0.1251(6) 0.3693(7)
H1 H 0.27790 0.06640 0.30620
B2 B 0.3344(3) 0.2988(7) 0.3524(7)
H2 H 0.31900 0.37560 0.29190
B3 B 0.2888(2) 0.2379(5) 0.5014(7)
H3 H 0.23590 0.26570 0.50210
B4 B 0.3406(3) 0.0822(6) 0.5238(7)
H4 H 0.33870 -0.02560 0.57600
B5 B 0.3867(3) 0.1391(7) 0.3727(7)
H5 H 0.41820 0.07610 0.31020
B6 B 0.3423(3) 0.3905(6) 0.5163(7)
H6 H 0.32570 0.49740 0.53850
B7 B 0.3468(3) 0.2383(6) 0.6379(6)
H7 H 0.33900 0.20380 0.74150
B8 B 0.4158(3) 0.1668(7) 0.5453(7)
H8 H 0.45560 0.08840 0.57330
B9 B 0.4126(3) 0.3190(7) 0.4252(8)
H9 H 0.44800 0.37100 0.37470
B10 B 0.4101(3) 0.3439(8) 0.5983(7)
H10 H 0.44170 0.40800 0.66470
Cu1 Cu 0.25546(4) 0.23855(9) 0.20942(9)
Cs1 Cs 0.075060(17) 0.23588(4) 0.49879(5)
Cu1A Cu 0.24454(4) 0.26145(9) 0.70942(9)
B3A B 0.2112(2) 0.2621(5) 0.0014(7)
H3A H 0.26410 0.23430 0.00210
B7A B 0.1532(3) 0.2617(6) 0.1379(6)
H7A H 0.16100 0.29620 0.24150
#END
