
#######################################################################
#
#                 Cambridge Crystallographic Data Centre
#                                CCDC
#
#######################################################################
#
# If this CIF has been generated from an entry in the Cambridge
# Structural Database, then it will include bibliographic, chemical,
# crystal, experimental, refinement or atomic coordinate data resulting
# from the CCDC's data processing and validation procedures.
#
#######################################################################

data_CSD_CIF_OFOCOB
_audit_creation_date 2002-09-16
_audit_creation_method CSD-ConQuest-V1
_database_code_CSD OFOCOB
_database_code_depnum_ccdc_archive 'CCDC 188396'
_chemical_formula_sum 'C17 Ag1 Al1 F36 O4 P8 S8'
_chemical_formula_moiety
;
(Ag1 P8 S6 1+)n,n(C16 Al1 F36 O4 1-),n(C1 S2)
;
_journal_coden_Cambridge 4
_journal_volume 124
_journal_year 2002
_journal_page_first 7111
_journal_name_full 'J.Am.Chem.Soc. '
loop_
_publ_author_name
"A.Adolf"
"M.Gonsior"
"I.Krossing"
_chemical_name_systematic
;
catena-((\m~2~-Tetraphosphorus trisulfide-P,S)-(\m~2~-tetraphosphorus 
trisulfide-P,P')-silver tetrakis(perfluoro-t-butoxy)-aluminium)
;
_cell_volume   4727.628
_exptl_crystal_colour 'colorless'
_exptl_crystal_density_diffrn 2.236
_exptl_crystal_description 'needle'
_diffrn_ambient_temperature 150
_refine_special_details
;
The carbon disulfide molecule is disordered over two sites with 0.75:0.25 
occupancies; one fluoropropanol is disordered over two sites with 0.809:0.191 
occupancies.
;
#These two values have been output from a single CSD field.
_refine_ls_R_factor_gt 0.0435
_refine_ls_wR_factor_gt 0.0435
loop_
_citation_database_id_CSD
_citation_special_details
OFOCOB01 "is a reinterpretation of this cif"
_symmetry_cell_setting monoclinic
_symmetry_space_group_name_H-M 'P 21/n'
_symmetry_Int_Tables_number 14
loop_
_symmetry_equiv_pos_site_id
_symmetry_equiv_pos_as_xyz
1 x,y,z
2 1/2-x,1/2+y,1/2-z
3 -x,-y,-z
4 -1/2+x,-1/2-y,-1/2+z
_cell_length_a 16.3639(14)
_cell_length_b 10.9494(5)
_cell_length_c 26.470(2)
_cell_angle_alpha 90
_cell_angle_beta 94.578(10)
_cell_angle_gamma 90
_cell_formula_units_Z 4
loop_
_atom_type_symbol
_atom_type_radius_bond
C 0.68
Ag 1.59
Al 1.35
F 0.64
O 0.68
P 1.06
S 1.02
loop_
_atom_site_label
_atom_site_type_symbol
_atom_site_fract_x
_atom_site_fract_y
_atom_site_fract_z
Ag1 Ag -0.00256(2) 0.76782(3) -0.484301(11)
S1 S 0.04630(8) 0.91141(10) -0.35573(4)
S2 S 0.04270(7) 1.20034(9) -0.37519(4)
P1 P 0.02417(8) 1.07425(10) -0.31634(4)
P2 P -0.10042(7) 0.59916(9) -0.51151(4)
P3 P -0.09845(8) 0.49853(10) -0.58463(4)
S3 S -0.13380(7) 0.32218(9) -0.56281(4)
S4 S -0.12972(8) 0.47152(10) -0.45769(4)
P4 P -0.03262(7) 0.93063(9) -0.42031(4)
P5 P -0.03410(7) 1.13071(9) -0.43422(4)
P6 P -0.13882(8) 1.04248(11) -0.39767(5)
P7 P -0.20855(8) 0.61062(10) -0.56740(5)
S5 S -0.28832(8) 0.48406(11) -0.53857(6)
S6 S -0.10487(9) 1.07310(11) -0.32128(4)
P8 P -0.20921(8) 0.35562(11) -0.50210(5)
Al1 Al -0.00355(7) 0.56817(10) -0.18445(4)
F1 F 0.1661(2) 0.8661(3) -0.25080(13)
F2 F 0.1041(2) 0.6569(3) -0.30583(10)
F3 F 0.1357(3) 0.8472(3) -0.17346(12)
O1 O -0.0727(2) 0.5958(3) -0.23519(13)
F4 F 0.0954(2) 0.4570(3) -0.08590(12)
O2 O 0.0957(2) 0.5891(3) -0.20043(12)
F5 F 0.1703(3) 0.5007(3) -0.27674(11)
F6 F 0.0280(3) 0.9029(3) -0.09241(16)
F7 F -0.0286(4) 0.1680(3) -0.20039(13)
O3 O -0.0112(2) 0.4183(3) -0.16500(12)
F8 F -0.1379(2) 0.5491(3) -0.09968(14)
F9 F 0.0804(3) 0.2789(3) -0.22127(12)
F10 F 0.04605(19) 0.8084(2) -0.23487(11)
F11 F -0.1508(3) 0.8994(4) -0.09874(18)
F12 F -0.0321(3) 0.3314(3) -0.06318(11)
F13 F 0.1230(3) 0.2686(3) -0.07338(14)
F14 F -0.1875(3) 0.7524(4) -0.1490(2)
F15 F -0.0300(4) 0.8433(4) -0.02657(13)
C1 C 0.0241(3) 0.3187(4) -0.14270(16)
C2 C 0.1517(3) 0.6616(4) -0.21868(14)
F16 F 0.1008(3) 0.1412(3) -0.16357(15)
F17 F -0.0481(3) 0.5813(3) -0.03751(12)
O4 O -0.0151(3) 0.6717(3) -0.13736(12)
F18 F 0.0665(3) 0.7410(4) -0.05271(18)
F19 F -0.1605(4) 0.6837(4) -0.04380(17)
F20 F -0.0933(3) 0.8752(4) -0.16699(14)
C3 C -0.1283(3) 0.5568(4) -0.27169(16)
C4 C 0.1259(3) 0.7986(4) -0.21977(17)
C5 C -0.1011(4) 0.6351(5) -0.07012(19)
C6 C -0.0593(3) 0.7296(4) -0.10336(15)
C7 C -0.1241(4) 0.8165(5) -0.1291(2)
C8 C 0.0036(4) 0.8037(5) -0.0691(2)
C9 C 0.1051(7) 0.3543(6) -0.1087(3)
C10 C 0.0482(6) 0.2266(7) -0.1809(2)
F21 F 0.2199(2) 0.6526(3) -0.13628(10)
F22 F -0.1338(3) 0.7631(3) -0.29761(14)
F23 F 0.2693(2) 0.5422(3) -0.19218(13)
F24 F 0.2866(2) 0.7378(3) -0.19273(16)
F25 F -0.1120(3) 0.2600(3) -0.13062(15)
F26 F -0.1389(3) 0.4116(3) -0.33986(11)
F27 F -0.2035(3) 0.4883(4) -0.20397(12)
F28 F -0.2067(3) 0.6391(4) -0.34439(16)
F29 F -0.0223(3) 0.4300(4) -0.29675(19)
F30 F -0.0695(4) 0.6385(6) -0.34550(16)
F31 F 0.1687(3) 0.3627(4) -0.1429(2)
F32 F 0.2357(3) 0.6654(5) -0.28987(14)
F33 F -0.0173(4) 0.1465(3) -0.0950(2)
C11 C 0.2332(3) 0.6481(4) -0.18463(18)
C12 C 0.1674(4) 0.6197(5) -0.27317(17)
F34 F -0.2626(3) 0.4699(6) -0.27825(18)
C13 C -0.0362(6) 0.2631(6) -0.1058(2)
C14 C -0.1011(6) 0.4392(8) -0.2974(3)
C15 C -0.1348(5) 0.6570(6) -0.3161(3)
C16 C -0.2109(6) 0.5467(9) -0.2510(3)
F35 F -0.2450(3) 0.6658(5) -0.2486(2)
F36 F -0.1214(4) 0.3430(4) -0.2629(2)
S7 S -0.18129(10) 0.98351(14) -0.53422(5)
S8 S -0.2594(2) 0.8031(3) -0.46396(12)
C17 C -0.2326(7) 0.9034(8) -0.5034(3)
S9? S -0.2829(6) 0.8302(9) -0.4746(4)
C18? C -0.2774(12) 0.9126(18) -0.5117(8)
C19? C -0.0754(15) 0.487(2) -0.3151(9)
C20? C -0.1857(11) 0.4497(14) -0.2441(6)
C21? C -0.1883(11) 0.6584(17) -0.2859(7)
F37? F -0.0556(17) 0.549(2) -0.3348(9)
F38? F -0.1496(11) 0.3443(13) -0.2368(5)
S3B S 0.13380(7) 0.67782(9) -0.43719(4)
P5B P 0.03410(7) 0.86929(9) -0.56578(4)
Ag1B Ag 0.00256(2) 0.23218(3) -0.515699(11)
Ag1B* Ag 0.00256(2) 1.23218(3) -0.515699(11)
#END
