
#######################################################################
#
#                 Cambridge Crystallographic Data Centre
#                                CCDC
#
#######################################################################
#
# If this CIF has been generated from an entry in the Cambridge
# Structural Database, then it will include bibliographic, chemical,
# crystal, experimental, refinement or atomic coordinate data resulting
# from the CCDC's data processing and validation procedures.
#
#######################################################################

data_CSD_CIF_RADNIX
_audit_creation_date 2020-09-18
_audit_creation_method CSD-ConQuest-V1
_database_code_CSD RADNIX
_database_code_depnum_ccdc_archive 'CCDC 2011181'
_chemical_formula_sum 'C6 Cl1 Cu3 K4 N6 O6'
_chemical_formula_moiety
;
(C6 Cu3 N6 O6 3-)n,Cl1 1-,4(K1 1+)
;
_journal_coden_Cambridge 182
_journal_volume 56
_journal_year 2020
_journal_page_first 12534
_journal_name_full 'Chem.Commun. '
loop_
_publ_author_name
"Kaijin Kang"
"Fei Liang"
"Xianghe Meng"
"Jian Tang"
"Tixian Zeng"
"Mingjun Xia"
"Zheshuai Lin"
"Wenlong Yin"
"Kang Bin"
_chemical_name_systematic
;
catena-[tetra-potassium bis(\m-2,4,6-trioxo-1,3,5-triazinanato)-tri-copper 
chloride]
;
_cell_volume    393.210
_exptl_crystal_density_diffrn 2.68
_diffrn_ambient_temperature 293
#These two values have been output from a single CSD field.
_refine_ls_R_factor_gt 0.0335
_refine_ls_wR_factor_gt 0.0335
_symmetry_cell_setting hexagonal
_symmetry_space_group_name_H-M 'P -3 m 1'
_symmetry_Int_Tables_number 164
loop_
_symmetry_equiv_pos_site_id
_symmetry_equiv_pos_as_xyz
1 x,y,z
2 -y,x-y,z
3 -x+y,-x,z
4 y,x,-z
5 x-y,-y,-z
6 -x,-x+y,-z
7 -x,-y,-z
8 y,-x+y,-z
9 x-y,x,-z
10 -y,-x,z
11 -x+y,y,z
12 x,x-y,z
_cell_length_a 11.1833(9)
_cell_length_b 11.1833(9)
_cell_length_c 3.6304(4)
_cell_angle_alpha 90
_cell_angle_beta 90
_cell_angle_gamma 120
_cell_formula_units_Z 1
loop_
_atom_type_symbol
_atom_type_radius_bond
C 0.68
Cl 0.99
Cu 1.32
K 2.03
N 0.68
O 0.68
loop_
_atom_site_label
_atom_site_type_symbol
_atom_site_fract_x
_atom_site_fract_y
_atom_site_fract_z
Cu1 Cu 0.00000 0.50000 0.00000
C1 C 0.2637(2) 0.7363(2) -0.0002(11)
O1 O 0.19916(18) 0.80084(18) -0.0002(11)
N1 N 0.40394(18) 0.8079(4) 0.0001(10)
K1 K 0.00000 0.76381(16) 0.50000
Cl1 Cl 0.00000 1.00000 0.00000
C1A C 0.2637(2) 0.5274(2) -0.0002(11)
O1A O 0.19916(18) 0.39832(18) -0.0002(11)
N1A N 0.19210(18) 0.59604(40) 0.0001(10)
C1B C 0.4726(2) 0.7363(2) -0.0002(11)
O1B O 0.60168(18) 0.80084(18) -0.0002(11)
N1B N 0.40396(18) 0.59606(40) 0.0001(10)
Cu1A Cu 0.50000 0.50000 0.00000
Cu1B Cu 0.50000 1.00000 0.00000
C1C C -0.2637(2) 0.2637(2) 0.0002(11)
O1C O -0.19916(18) 0.19916(18) 0.0002(11)
N1D N -0.40396(18) 0.1921(4) -0.0001(10)
C1E C -0.2637(2) 0.4726(2) 0.0002(11)
O1E O -0.19916(18) 0.60168(18) 0.0002(11)
N1C N -0.19210(18) 0.40394(40) -0.0001(10)
C1D C -0.4726(2) 0.2637(2) 0.0002(11)
O1D O -0.60168(18) 0.19916(18) 0.0002(11)
N1E N -0.40394(18) 0.40396(40) -0.0001(10)
Cu1A* Cu -0.50000 0.50000 0.00000
Cu1B* Cu -0.50000 0.00000 0.00000
N1D* N 0.59604(18) 1.1921(4) -0.0001(10)
N1E* N 0.59606(18) 0.40396(40) -0.0001(10)
#END
