
#######################################################################
#
#                 Cambridge Crystallographic Data Centre
#                                CCDC
#
#######################################################################
#
# If this CIF has been generated from an entry in the Cambridge
# Structural Database, then it will include bibliographic, chemical,
# crystal, experimental, refinement or atomic coordinate data resulting
# from the CCDC's data processing and validation procedures.
#
#######################################################################

data_CSD_CIF_RUFRIU
_audit_creation_date 2010-01-21
_audit_creation_method CSD-ConQuest-V1
_database_code_CSD RUFRIU
_database_code_depnum_ccdc_archive 'CCDC 661059'
_chemical_formula_sum 'C4 N2 O16 Rb4 S4 U2'
_chemical_formula_moiety
;
(Rb1 1+)4n,n(C4 N2 O16 S4 U2 4-)
;
_journal_coden_Cambridge 41
_journal_volume 53
_journal_year 2008
_journal_page_first 495
_journal_name_full 'Kristallografiya(Russ.)(Crystallogr.Rep.) '
loop_
_publ_author_name
"I.V.Medrish"
"E.V.Peresypkina"
"A.V.Virovets"
"L.B.Serezhkina"
_chemical_name_systematic
;
catena-(tetrarubidium 
bis(\m~2~-sulfato-O,O')-(\m~2~-oxalato-O,O',O'',O''')-bis(isothiocyanato)-tetr
aoxo-di-uranium(vi))
;
_cell_volume   1183.735
_exptl_crystal_colour 'yellow'
_exptl_crystal_density_diffrn 3.586
_exptl_special_details
;
Isostructural with K-S and Se-K analogues

;
_exptl_crystal_description 'prism'
_diffrn_ambient_temperature 295
#These two values have been output from a single CSD field.
_refine_ls_R_factor_gt 0.0235
_refine_ls_wR_factor_gt 0.0235
_symmetry_cell_setting monoclinic
_symmetry_space_group_name_H-M 'P 21/c'
_symmetry_Int_Tables_number 14
loop_
_symmetry_equiv_pos_site_id
_symmetry_equiv_pos_as_xyz
1 x,y,z
2 -x,1/2+y,1/2-z
3 -x,-y,-z
4 x,-1/2-y,-1/2+z
_cell_length_a 11.5854(9)
_cell_length_b 7.3841(6)
_cell_length_c 13.9072(9)
_cell_angle_alpha 90
_cell_angle_beta 95.754(3)
_cell_angle_gamma 90
_cell_formula_units_Z 2
loop_
_atom_type_symbol
_atom_type_radius_bond
C 0.68
N 0.68
O 0.68
Rb 1.47
S 1.02
U 1.38
loop_
_atom_site_label
_atom_site_type_symbol
_atom_site_fract_x
_atom_site_fract_y
_atom_site_fract_z
U1 U 0.255271(13) 0.62923(2) 0.964422(12)
O1 O 0.2722(3) 0.7190(5) 1.0826(2)
O2 O 0.2373(3) 0.5431(5) 0.8463(2)
S1 S 0.54640(9) 0.67679(14) 0.90368(7)
O3 O 0.4412(3) 0.7474(4) 0.9465(2)
O4 O 0.5982(3) 0.8244(4) 0.8544(2)
O5 O 0.6276(3) 0.6187(4) 0.9885(2)
O6 O 0.5155(3) 0.5254(4) 0.8406(2)
C1 C 0.1552(4) 1.0197(7) 0.8520(4)
O7 O 0.0466(3) 0.7081(5) 0.9608(3)
O8 O -0.1319(3) 0.6114(4) 0.9818(3)
N1 N 0.2204(4) 0.9372(6) 0.9034(4)
C2 C -0.0242(4) 0.5923(6) 0.9836(4)
S2 S 0.06361(15) 1.1406(3) 0.78423(15)
Rb1 Rb 0.44849(4) 1.15254(6) 0.85053(3)
Rb2 Rb -0.16825(4) 0.94147(6) 0.86710(4)
U1B U 0.744729(13) 0.37077(2) 1.035578(12)
U1B* U -0.255271(13) 0.37077(2) 1.035578(12)
O1B O 0.7278(3) 0.2810(5) 0.9174(2)
O2B O 0.7627(3) 0.4569(5) 1.1537(2)
S1B S 0.45360(9) 0.32321(14) 1.09632(7)
O3B O 0.5588(3) 0.2526(4) 1.0535(2)
O4B O 0.4018(3) 0.1756(4) 1.1456(2)
O5B O 0.3724(3) 0.3813(4) 1.0115(2)
O6B O 0.4845(3) 0.4746(4) 1.1594(2)
C1B C 0.8448(4) -0.0197(7) 1.1480(4)
O7B O -0.0466(3) 0.2919(5) 1.0392(3)
O7B* O 0.9534(3) 0.2919(5) 1.0392(3)
O8B O 0.1319(3) 0.3886(4) 1.0182(3)
O8* O 0.8681(3) 0.6114(4) 0.9818(3)
N1B N 0.7796(4) 0.0628(6) 1.0966(4)
C2B C 0.0242(4) 0.4077(6) 1.0164(4)
S2B S 0.93639(15) -0.1406(3) 1.21577(15)
#END
