
#######################################################################
#
#                 Cambridge Crystallographic Data Centre
#                                CCDC
#
#######################################################################
#
# If this CIF has been generated from an entry in the Cambridge
# Structural Database, then it will include bibliographic, chemical,
# crystal, experimental, refinement or atomic coordinate data resulting
# from the CCDC's data processing and validation procedures.
#
#######################################################################

data_CSD_CIF_RUFROA
_audit_creation_date 2010-01-21
_audit_creation_method CSD-ConQuest-V1
_database_code_CSD RUFROA
_database_code_depnum_ccdc_archive 'CCDC 661060'
_chemical_formula_sum 'C4 K4 N2 O16 S2 Se2 U2'
_chemical_formula_moiety
;
(K1 1+)4n,n(C4 N2 O16 S2 Se2 U2 4-)
;
_journal_coden_Cambridge 41
_journal_volume 53
_journal_year 2008
_journal_page_first 495
_journal_name_full 'Kristallografiya(Russ.)(Crystallogr.Rep.) '
loop_
_publ_author_name
"I.V.Medrish"
"E.V.Peresypkina"
"A.V.Virovets"
"L.B.Serezhkina"
_chemical_name_systematic
;
catena-(tetrapotassium 
bis(\m~2~-selenato-O,O')-(\m~2~-oxalato-O,O',O'',O''')-bis(isothiocyanato)-tet
raoxo-di-uranium(vi))
;
_cell_volume   1152.655
_exptl_crystal_colour 'yellow'
_exptl_crystal_density_diffrn 3.419
_exptl_special_details
;
Isostructural with K-S and Rb-S analogues

;
_exptl_crystal_description 'prism'
_diffrn_ambient_temperature 295
#These two values have been output from a single CSD field.
_refine_ls_R_factor_gt 0.0126
_refine_ls_wR_factor_gt 0.0126
_symmetry_cell_setting monoclinic
_symmetry_space_group_name_H-M 'P 21/c'
_symmetry_Int_Tables_number 14
loop_
_symmetry_equiv_pos_site_id
_symmetry_equiv_pos_as_xyz
1 x,y,z
2 -x,1/2+y,1/2-z
3 -x,-y,-z
4 x,-1/2-y,-1/2+z
_cell_length_a 11.6715(3)
_cell_length_b 7.1418(2)
_cell_length_c 13.8546(3)
_cell_angle_alpha 90
_cell_angle_beta 93.539(1)
_cell_angle_gamma 90
_cell_formula_units_Z 2
loop_
_atom_type_symbol
_atom_type_radius_bond
C 0.68
K 1.33
N 0.68
O 0.68
S 1.02
Se 1.22
U 1.38
loop_
_atom_site_label
_atom_site_type_symbol
_atom_site_fract_x
_atom_site_fract_y
_atom_site_fract_z
U1 U 0.250531(8) 0.645048(13) 0.959551(7)
O1 O 0.26108(17) 0.7391(3) 1.07790(15)
O2 O 0.23902(16) 0.5533(3) 0.84144(14)
Se1 Se 0.55387(2) 0.67807(3) 0.899890(18)
O3 O 0.43655(15) 0.7702(3) 0.94259(14)
O4 O 0.61971(18) 0.8444(3) 0.84750(16)
O5 O 0.62956(16) 0.6086(3) 0.99862(13)
O6 O 0.52421(18) 0.5059(3) 0.82792(14)
C1 C 0.1480(3) 1.0519(4) 0.8555(2)
O7 O 0.04300(16) 0.7099(3) 0.95067(16)
O8 O -0.13258(16) 0.6036(3) 0.97533(15)
N1 N 0.2173(2) 0.9643(4) 0.8990(2)
C2 C -0.0258(2) 0.5901(4) 0.9788(2)
S1 S 0.05027(8) 1.17694(14) 0.79842(8)
K1 K 0.45468(7) 1.15080(9) 0.85508(5)
K2 K -0.16188(5) 0.93243(9) 0.86214(5)
U1B U 0.749469(8) 0.354952(13) 1.040449(7)
U1B* U -0.250531(8) 0.354952(13) 1.040449(7)
O1B O 0.73892(17) 0.2609(3) 0.92210(15)
O2B O 0.76098(16) 0.4467(3) 1.15856(14)
Se1B Se 0.44613(2) 0.32193(3) 1.100110(18)
O3B O 0.56345(15) 0.2298(3) 1.05741(14)
O4B O 0.38029(18) 0.1556(3) 1.15250(16)
O5B O 0.37044(16) 0.3914(3) 1.00138(13)
O6B O 0.47579(18) 0.4941(3) 1.17208(14)
C1B C 0.8520(3) -0.0519(4) 1.1445(2)
O7B O -0.04300(16) 0.2901(3) 1.04933(16)
O7B* O 0.95700(16) 0.2901(3) 1.04933(16)
O8B O 0.13258(16) 0.3964(3) 1.02467(15)
O8* O 0.86742(16) 0.6036(3) 0.97533(15)
N1B N 0.7827(2) 0.0357(4) 1.1010(2)
C2B C 0.0258(2) 0.4099(4) 1.0212(2)
S1B S 0.94973(8) -0.17694(14) 1.20158(8)
#END
