
#######################################################################
#
#                 Cambridge Crystallographic Data Centre
#                                CCDC
#
#######################################################################
#
# If this CIF has been generated from an entry in the Cambridge
# Structural Database, then it will include bibliographic, chemical,
# crystal, experimental, refinement or atomic coordinate data resulting
# from the CCDC's data processing and validation procedures.
#
#######################################################################

data_CSD_CIF_RUFREQ
_audit_creation_date 2010-01-21
_audit_creation_method CSD-ConQuest-V1
_database_code_CSD RUFREQ
_database_code_depnum_ccdc_archive 'CCDC 661058'
_chemical_formula_sum 'C4 K4 N2 O16 S4 U2'
_chemical_formula_moiety
;
(K1 1+)4n,n(C4 N2 O16 S4 U2 4-)
;
_journal_coden_Cambridge 41
_journal_volume 53
_journal_year 2008
_journal_page_first 495
_journal_name_full 'Kristallografiya(Russ.)(Crystallogr.Rep.) '
loop_
_publ_author_name
"I.V.Medrish"
"E.V.Peresypkina"
"A.V.Virovets"
"L.B.Serezhkina"
_chemical_name_systematic
;
catena-(tetrapotassium 
bis(\m~2~-sulfato-O,O')-(\m~2~-oxalato-O,O',O'',O''')-bis(isothiocyanato)-tetr
aoxo-di-uranium(vi))
;
_cell_volume   1104.898
_exptl_crystal_colour 'yellow'
_exptl_crystal_density_diffrn 3.285
_exptl_special_details
;
Isostructural with Rb-S and Se-K analogues

;
_exptl_crystal_description 'block'
_diffrn_ambient_temperature 295
#These two values have been output from a single CSD field.
_refine_ls_R_factor_gt 0.015
_refine_ls_wR_factor_gt 0.015
_symmetry_cell_setting monoclinic
_symmetry_space_group_name_H-M 'P 21/c'
_symmetry_Int_Tables_number 14
loop_
_symmetry_equiv_pos_site_id
_symmetry_equiv_pos_as_xyz
1 x,y,z
2 -x,1/2+y,1/2-z
3 -x,-y,-z
4 x,-1/2-y,-1/2+z
_cell_length_a 11.5548(3)
_cell_length_b 7.0847(1)
_cell_length_c 13.5172(3)
_cell_angle_alpha 90
_cell_angle_beta 93.130(1)
_cell_angle_gamma 90
_cell_formula_units_Z 2
loop_
_atom_type_symbol
_atom_type_radius_bond
C 0.68
K 1.33
N 0.68
O 0.68
S 1.02
U 1.38
loop_
_atom_site_label
_atom_site_type_symbol
_atom_site_fract_x
_atom_site_fract_y
_atom_site_fract_z
U1 U 0.256035(9) 0.637446(15) 0.962114(8)
O1 O 0.2656(2) 0.7359(3) 1.08245(17)
O2 O 0.2457(2) 0.5410(3) 0.84200(16)
S1 S 0.55200(6) 0.68126(10) 0.90149(5)
O3 O 0.44512(18) 0.7581(3) 0.94513(16)
O4 O 0.6066(2) 0.8328(3) 0.84910(18)
O5 O 0.62891(19) 0.6222(3) 0.98885(16)
O6 O 0.5242(2) 0.5217(3) 0.83817(16)
C1 C 0.1533(3) 1.0427(5) 0.8543(3)
O7 O 0.04743(19) 0.7109(3) 0.95128(19)
O8 O -0.1323(2) 0.6081(3) 0.97360(19)
N1 N 0.2252(3) 0.9574(4) 0.8970(3)
C2 C -0.0248(3) 0.5920(4) 0.9786(2)
S2 S 0.05147(9) 1.16452(16) 0.79647(9)
K1 K 0.45763(7) 1.15438(10) 0.85242(5)
K2 K -0.17048(7) 0.92903(11) 0.86132(6)
U1B U 0.743965(9) 0.362554(15) 1.037886(8)
U1B* U -0.256035(9) 0.362554(15) 1.037886(8)
O1B O 0.7344(2) 0.2641(3) 0.91755(17)
O2B O 0.7543(2) 0.4590(3) 1.15800(16)
S1B S 0.44800(6) 0.31874(10) 1.09851(5)
O3B O 0.55488(18) 0.2419(3) 1.05487(16)
O4B O 0.3934(2) 0.1672(3) 1.15090(18)
O5B O 0.37109(19) 0.3778(3) 1.01115(16)
O6B O 0.4758(2) 0.4783(3) 1.16183(16)
C1B C 0.8467(3) -0.0427(5) 1.1457(3)
O7B O -0.04743(19) 0.2891(3) 1.04872(19)
O7B* O 0.95257(19) 0.2891(3) 1.04872(19)
O8B O 0.1323(2) 0.3919(3) 1.02640(19)
O8* O 0.8677(2) 0.6081(3) 0.97360(19)
N1B N 0.7748(3) 0.0426(4) 1.1030(3)
C2B C 0.0248(3) 0.4080(4) 1.0214(2)
S2B S 0.94853(9) -0.16452(16) 1.20353(9)
#END
