
#######################################################################
#
#                 Cambridge Crystallographic Data Centre
#                                CCDC
#
#######################################################################
#
# If this CIF has been generated from an entry in the Cambridge
# Structural Database, then it will include bibliographic, chemical,
# crystal, experimental, refinement or atomic coordinate data resulting
# from the CCDC's data processing and validation procedures.
#
#######################################################################

data_CSD_CIF_TESZOJ
_audit_creation_date 2017-12-13
_audit_creation_method CSD-ConQuest-V1
_database_code_CSD TESZOJ
_database_code_depnum_ccdc_archive 'CCDC 1585968'
_chemical_formula_sum 'C12 Cd3 K6 N12 O12'
_chemical_formula_moiety
;
(C12 Cd3 N12 O12 6-)n,6(K1 1+)
;
_journal_coden_Cambridge 9
_journal_volume 57
_journal_year 2018
_journal_page_first 32
_journal_name_full 'Inorg.Chem. '
loop_
_publ_author_name
"Mingjun Xia"
"Molin Zhou"
"Fei Liang"
"Xianghe Meng"
"Jiyong Yao"
"Zheshuai Lin"
"Rukang Li"
_chemical_name_systematic
;
catena-[hexa-potassium 
tetrakis(\m-2,4,6-trioxo-1,3,5-triazinane-1,3,5-triide)-tri-cadmium]
;
_cell_volume   2407.020
_exptl_crystal_density_diffrn 2.969
_exptl_crystal_description 'Prism'
_diffrn_ambient_temperature 293
#These two values have been output from a single CSD field.
_refine_ls_R_factor_gt 0.0202
_refine_ls_wR_factor_gt 0.0202
_symmetry_cell_setting cubic
_symmetry_space_group_name_H-M 'I -4 3 d'
_symmetry_Int_Tables_number 220
loop_
_symmetry_equiv_pos_site_id
_symmetry_equiv_pos_as_xyz
1 x,y,z
2 1/2-x,-y,1/2+z
3 -x,1/2+y,1/2-z
4 1/2+x,1/2-y,-z
5 z,x,y
6 1/2+z,1/2-x,-y
7 1/2-z,-x,1/2+y
8 -z,1/2+x,1/2-y
9 y,z,x
10 -y,1/2+z,1/2-x
11 1/2+y,1/2-z,-x
12 1/2-y,-z,1/2+x
13 1/4+y,1/4+x,1/4+z
14 1/4-y,3/4-x,3/4+z
15 3/4+y,1/4-x,3/4-z
16 3/4-y,3/4+x,1/4-z
17 1/4+x,1/4+z,1/4+y
18 3/4-x,3/4+z,1/4-y
19 1/4-x,3/4-z,3/4+y
20 3/4+x,1/4-z,3/4-y
21 1/4+z,1/4+y,1/4+x
22 3/4+z,1/4-y,3/4-x
23 3/4-z,3/4+y,1/4-x
24 1/4-z,3/4-y,3/4+x
25 1/2+x,1/2+y,1/2+z
26 -x,1/2-y,z
27 1/2-x,y,-z
28 x,-y,1/2-z
29 1/2+z,1/2+x,1/2+y
30 z,-x,1/2-y
31 -z,1/2-x,y
32 1/2-z,x,-y
33 1/2+y,1/2+z,1/2+x
34 1/2-y,z,-x
35 y,-z,1/2-x
36 -y,1/2-z,x
37 3/4+y,3/4+x,3/4+z
38 3/4-y,1/4-x,1/4+z
39 1/4+y,3/4-x,1/4-z
40 1/4-y,1/4+x,3/4-z
41 3/4+x,3/4+z,3/4+y
42 1/4-x,1/4+z,3/4-y
43 3/4-x,1/4-z,1/4+y
44 1/4+x,3/4-z,1/4-y
45 3/4+z,3/4+y,3/4+x
46 1/4+z,3/4-y,1/4-x
47 1/4-z,1/4+y,3/4-x
48 3/4-z,1/4-y,1/4+x
_cell_length_a 13.4017(15)
_cell_length_b 13.4017(15)
_cell_length_c 13.4017(15)
_cell_angle_alpha 90
_cell_angle_beta 90
_cell_angle_gamma 90
_cell_formula_units_Z 4
loop_
_atom_type_symbol
_atom_type_radius_bond
C 0.68
Cd 1.44
K 2.03
N 0.68
O 0.68
loop_
_atom_site_label
_atom_site_type_symbol
_atom_site_fract_x
_atom_site_fract_y
_atom_site_fract_z
Cd1 Cd 1.00000 0.25000 0.37500
O1 O 0.8287(2) 0.0601(2) 0.39732(19)
N1 N 0.9715(2) 0.1147(2) 0.4706(2)
C1 C 0.8945(2) 0.0485(3) 0.4628(3)
K1 K 1.02277(8) 0.00000 0.25000
O1F O 1.10268(20) 0.1713(2) 0.56010(19)
N1F N 1.0294(2) 0.0285(2) 0.6147(2)
C1F C 1.0372(2) 0.1055(3) 0.5485(3)
O1I O 0.9399(2) -0.10268(20) 0.67130(19)
N1I N 0.8853(2) -0.0294(2) 0.5285(2)
C1I C 0.9515(2) -0.0372(3) 0.6055(3)
Cd1F Cd 1.12500 0.00000 0.75000
Cd1I Cd 0.75000 -0.12500 0.50000
O1N O 0.8101(2) 0.4213(2) 0.35268(19)
N1N N 0.8647(2) 0.2785(2) 0.2794(2)
C1N C 0.7985(2) 0.3555(3) 0.2872(3)
O1Q O 0.9213(2) 0.14732(20) 0.18990(19)
N1Q N 0.7785(2) 0.2206(2) 0.1353(2)
C1Q C 0.8555(2) 0.2128(3) 0.2015(3)
O1T O 0.64732(20) 0.3101(2) 0.07870(19)
N1T N 0.7206(2) 0.3647(2) 0.2215(2)
C1T C 0.7128(2) 0.2985(3) 0.1445(3)
O1O O 0.6899(2) -0.4213(2) 0.85268(19)
N1O N 0.6353(2) -0.2785(2) 0.7794(2)
C1O C 0.7015(2) -0.3555(3) 0.7872(3)
O1S O 0.5787(2) -0.14732(20) 0.68990(19)
N1S N 0.7215(2) -0.2206(2) 0.6353(2)
C1S C 0.6445(2) -0.2128(3) 0.7015(3)
O1W O 0.85268(20) -0.3101(2) 0.57870(19)
N1W N 0.7794(2) -0.3647(2) 0.7215(2)
C1W C 0.7872(2) -0.2985(3) 0.6445(3)
O1R O 1.4213(2) 0.35268(20) 0.81010(19)
N1R N 1.2785(2) 0.2794(2) 0.8647(2)
C1R C 1.3555(2) 0.2872(3) 0.7985(3)
O1U O 1.14732(20) 0.1899(2) 0.92130(19)
N1U N 1.2206(2) 0.1353(2) 0.7785(2)
C1U C 1.2128(2) 0.2015(3) 0.8555(3)
O1L O 1.3101(2) 0.0787(2) 0.64732(19)
N1L N 1.3647(2) 0.2215(2) 0.7206(2)
C1L C 1.2985(2) 0.1445(3) 0.7128(3)
Cd1A Cd 0.50000 -0.25000 0.87500
Cd1C Cd 1.50000 0.25000 0.62500
Cd1E Cd 0.87500 -0.50000 0.75000
Cd1G Cd 0.62500 0.50000 0.25000
Cd1H Cd 1.25000 0.37500 1.00000
Cd1J Cd 0.75000 0.12500 0.00000
N1Y N 1.0285(2) 0.3853(2) 0.4706(2)
N1EA N 1.0294(2) -0.0285(2) 0.8853(2)
N1FA N 0.6147(2) -0.0294(2) 0.4715(2)
N1MA N 1.1353(2) 0.2215(2) 0.2794(2)
N1PA N 0.7785(2) -0.2206(2) 0.3647(2)
N1RA N 1.2206(2) -0.1353(2) 0.7215(2)
#END
